ITEM: TIMESTEP
0
ITEM: NUMBER OF CELLS
10000
ITEM: BOX BOUNDS pp pp pp
1.8 3.22
-1 0.85
-0.01 0.01
ITEM: CELLS id xc yc f_1[1] 
1 1.8071 -0.99075 0 
5 1.8639 -0.99075 0 
9 1.9207 -0.99075 0 
13 1.9775 -0.99075 0 
17 2.0343 -0.99075 0 
21 2.0911 -0.99075 0 
25 2.1479 -0.99075 0 
29 2.2047 -0.99075 0 
33 2.2615 -0.99075 0 
37 2.3183 -0.99075 0 
41 2.3751 -0.99075 0 
45 2.4319 -0.99075 0 
49 2.4887 -0.99075 0 
101 1.8071 -0.97225 0 
105 1.8639 -0.97225 0 
109 1.9207 -0.97225 0 
113 1.9775 -0.97225 0 
117 2.0343 -0.97225 0 
121 2.0911 -0.97225 0 
125 2.1479 -0.97225 0 
129 2.2047 -0.97225 0 
133 2.2615 -0.97225 0 
137 2.3183 -0.97225 0 
141 2.3751 -0.97225 0 
145 2.4319 -0.97225 0 
149 2.4887 -0.97225 0 
201 1.8071 -0.95375 0 
205 1.8639 -0.95375 0 
209 1.9207 -0.95375 0 
213 1.9775 -0.95375 0 
217 2.0343 -0.95375 0 
221 2.0911 -0.95375 0 
225 2.1479 -0.95375 0 
229 2.2047 -0.95375 0 
233 2.2615 -0.95375 0 
237 2.3183 -0.95375 0 
241 2.3751 -0.95375 0 
245 2.4319 -0.95375 0 
249 2.4887 -0.95375 0 
301 1.8071 -0.93525 0 
305 1.8639 -0.93525 0 
309 1.9207 -0.93525 0 
313 1.9775 -0.93525 0 
317 2.0343 -0.93525 0 
321 2.0911 -0.93525 0 
325 2.1479 -0.93525 0 
329 2.2047 -0.93525 0 
333 2.2615 -0.93525 0 
337 2.3183 -0.93525 0 
341 2.3751 -0.93525 0 
345 2.4319 -0.93525 0 
349 2.4887 -0.93525 0 
401 1.8071 -0.91675 0 
405 1.8639 -0.91675 0 
409 1.9207 -0.91675 0 
413 1.9775 -0.91675 0 
417 2.0343 -0.91675 0 
421 2.0911 -0.91675 0 
425 2.1479 -0.91675 0 
429 2.2047 -0.91675 0 
433 2.2615 -0.91675 0 
437 2.3183 -0.91675 0 
441 2.3751 -0.91675 0 
445 2.4319 -0.91675 0 
449 2.4887 -0.91675 0 
501 1.8071 -0.89825 0 
505 1.8639 -0.89825 0 
509 1.9207 -0.89825 0 
513 1.9775 -0.89825 0 
517 2.0343 -0.89825 0 
521 2.0911 -0.89825 0 
525 2.1479 -0.89825 0 
529 2.2047 -0.89825 0 
533 2.2615 -0.89825 0 
537 2.3183 -0.89825 0 
541 2.3751 -0.89825 0 
545 2.4319 -0.89825 0 
549 2.4887 -0.89825 0 
601 1.8071 -0.87975 0 
605 1.8639 -0.87975 0 
609 1.9207 -0.87975 0 
613 1.9775 -0.87975 0 
617 2.0343 -0.87975 0 
621 2.0911 -0.87975 0 
625 2.1479 -0.87975 0 
629 2.2047 -0.87975 0 
633 2.2615 -0.87975 0 
637 2.3183 -0.87975 0 
641 2.3751 -0.87975 0 
645 2.4319 -0.87975 0 
649 2.4887 -0.87975 0 
701 1.8071 -0.86125 0 
705 1.8639 -0.86125 0 
709 1.9207 -0.86125 0 
713 1.9775 -0.86125 0 
717 2.0343 -0.86125 0 
721 2.0911 -0.86125 0 
725 2.1479 -0.86125 0 
729 2.2047 -0.86125 0 
733 2.2615 -0.86125 0 
737 2.3183 -0.86125 0 
741 2.3751 -0.86125 0 
745 2.4319 -0.86125 0 
749 2.4887 -0.86125 0 
801 1.8071 -0.84275 0 
805 1.8639 -0.84275 0 
809 1.9207 -0.84275 0 
813 1.9775 -0.84275 0 
817 2.0343 -0.84275 0 
821 2.0911 -0.84275 0 
825 2.1479 -0.84275 0 
829 2.2047 -0.84275 0 
833 2.2615 -0.84275 0 
837 2.3183 -0.84275 0 
841 2.3751 -0.84275 0 
845 2.4319 -0.84275 0 
849 2.4887 -0.84275 0 
901 1.8071 -0.82425 0 
905 1.8639 -0.82425 0 
909 1.9207 -0.82425 0 
913 1.9775 -0.82425 0 
917 2.0343 -0.82425 0 
921 2.0911 -0.82425 0 
925 2.1479 -0.82425 0 
929 2.2047 -0.82425 0 
933 2.2615 -0.82425 0 
937 2.3183 -0.82425 0 
941 2.3751 -0.82425 0 
945 2.4319 -0.82425 0 
949 2.4887 -0.82425 0 
1001 1.8071 -0.80575 0 
1005 1.8639 -0.80575 0 
1009 1.9207 -0.80575 0 
1013 1.9775 -0.80575 0 
1017 2.0343 -0.80575 0 
1021 2.0911 -0.80575 0 
1025 2.1479 -0.80575 0 
1029 2.2047 -0.80575 0 
1033 2.2615 -0.80575 0 
1037 2.3183 -0.80575 0 
1041 2.3751 -0.80575 0 
1045 2.4319 -0.80575 0 
1049 2.4887 -0.80575 0 
1101 1.8071 -0.78725 0 
1105 1.8639 -0.78725 0 
1109 1.9207 -0.78725 0 
1113 1.9775 -0.78725 0 
1117 2.0343 -0.78725 0 
1121 2.0911 -0.78725 0 
1125 2.1479 -0.78725 0 
1129 2.2047 -0.78725 0 
1133 2.2615 -0.78725 0 
1137 2.3183 -0.78725 0 
1141 2.3751 -0.78725 0 
1145 2.4319 -0.78725 0 
1149 2.4887 -0.78725 0 
1201 1.8071 -0.76875 0 
1205 1.8639 -0.76875 0 
1209 1.9207 -0.76875 0 
1213 1.9775 -0.76875 0 
1217 2.0343 -0.76875 0 
1221 2.0911 -0.76875 0 
1225 2.1479 -0.76875 0 
1229 2.2047 -0.76875 0 
1233 2.2615 -0.76875 0 
1237 2.3183 -0.76875 0 
1241 2.3751 -0.76875 0 
1245 2.4319 -0.76875 0 
1249 2.4887 -0.76875 0 
1301 1.8071 -0.75025 0 
1305 1.8639 -0.75025 0 
1309 1.9207 -0.75025 0 
1313 1.9775 -0.75025 0 
1317 2.0343 -0.75025 0 
1321 2.0911 -0.75025 0 
1325 2.1479 -0.75025 0 
1329 2.2047 -0.75025 0 
1333 2.2615 -0.75025 0 
1337 2.3183 -0.75025 0 
1341 2.3751 -0.75025 0 
1345 2.4319 -0.75025 0 
1349 2.4887 -0.75025 0 
1401 1.8071 -0.73175 0 
1405 1.8639 -0.73175 0 
1409 1.9207 -0.73175 0 
1413 1.9775 -0.73175 0 
1417 2.0343 -0.73175 0 
1421 2.0911 -0.73175 0 
1425 2.1479 -0.73175 0 
1429 2.2047 -0.73175 0 
1433 2.2615 -0.73175 0 
1437 2.3183 -0.73175 0 
1441 2.3751 -0.73175 0 
1445 2.4319 -0.73175 0 
1449 2.4887 -0.73175 0 
1501 1.8071 -0.71325 0 
1505 1.8639 -0.71325 0 
1509 1.9207 -0.71325 0 
1513 1.9775 -0.71325 0 
1517 2.0343 -0.71325 0 
1521 2.0911 -0.71325 0 
1525 2.1479 -0.71325 0 
1529 2.2047 -0.71325 0 
1533 2.2615 -0.71325 0 
1537 2.3183 -0.71325 0 
1541 2.3751 -0.71325 0 
1545 2.4319 -0.71325 0 
1549 2.4887 -0.71325 0 
1601 1.8071 -0.69475 0 
1605 1.8639 -0.69475 0 
1609 1.9207 -0.69475 0 
1613 1.9775 -0.69475 0 
1617 2.0343 -0.69475 0 
1621 2.0911 -0.69475 0 
1625 2.1479 -0.69475 0 
1629 2.2047 -0.69475 0 
1633 2.2615 -0.69475 0 
1637 2.3183 -0.69475 0 
1641 2.3751 -0.69475 0 
1645 2.4319 -0.69475 0 
1649 2.4887 -0.69475 0 
1701 1.8071 -0.67625 0 
1705 1.8639 -0.67625 0 
1709 1.9207 -0.67625 0 
1713 1.9775 -0.67625 0 
1717 2.0343 -0.67625 0 
1721 2.0911 -0.67625 0 
1725 2.1479 -0.67625 0 
1729 2.2047 -0.67625 0 
1733 2.2615 -0.67625 0 
1737 2.3183 -0.67625 0 
1741 2.3751 -0.67625 0 
1745 2.4319 -0.67625 0 
1749 2.4887 -0.67625 0 
1801 1.8071 -0.65775 0 
1805 1.8639 -0.65775 0 
1809 1.9207 -0.65775 0 
1813 1.9775 -0.65775 0 
1817 2.0343 -0.65775 0 
1821 2.0911 -0.65775 0 
1825 2.1479 -0.65775 0 
1829 2.2047 -0.65775 0 
1833 2.2615 -0.65775 0 
1837 2.3183 -0.65775 0 
1841 2.3751 -0.65775 0 
1845 2.4319 -0.65775 0 
1849 2.4887 -0.65775 0 
1901 1.8071 -0.63925 0 
1905 1.8639 -0.63925 0 
1909 1.9207 -0.63925 0 
1913 1.9775 -0.63925 0 
1917 2.0343 -0.63925 0 
1921 2.0911 -0.63925 0 
1925 2.1479 -0.63925 0 
1929 2.2047 -0.63925 0 
1933 2.2615 -0.63925 0 
1937 2.3183 -0.63925 0 
1941 2.3751 -0.63925 0 
1945 2.4319 -0.63925 0 
1949 2.4887 -0.63925 0 
2001 1.8071 -0.62075 0 
2005 1.8639 -0.62075 0 
2009 1.9207 -0.62075 0 
2013 1.9775 -0.62075 0 
2017 2.0343 -0.62075 0 
2021 2.0911 -0.62075 0 
2025 2.1479 -0.62075 0 
2029 2.2047 -0.62075 0 
2033 2.2615 -0.62075 0 
2037 2.3183 -0.62075 0 
2041 2.3751 -0.62075 0 
2045 2.4319 -0.62075 0 
2049 2.4887 -0.62075 0 
2101 1.8071 -0.60225 0 
2105 1.8639 -0.60225 0 
2109 1.9207 -0.60225 0 
2113 1.9775 -0.60225 0 
2117 2.0343 -0.60225 0 
2121 2.0911 -0.60225 0 
2125 2.1479 -0.60225 0 
2129 2.2047 -0.60225 0 
2133 2.2615 -0.60225 0 
2137 2.3183 -0.60225 0 
2141 2.3751 -0.60225 0 
2145 2.4319 -0.60225 0 
2149 2.4887 -0.60225 0 
2201 1.8071 -0.58375 0 
2205 1.8639 -0.58375 0 
2209 1.9207 -0.58375 0 
2213 1.9775 -0.58375 0 
2217 2.0343 -0.58375 0 
2221 2.0911 -0.58375 0 
2225 2.1479 -0.58375 0 
2229 2.2047 -0.58375 0 
2233 2.2615 -0.58375 0 
2237 2.3183 -0.58375 0 
2241 2.3751 -0.58375 0 
2245 2.4319 -0.58375 0 
2249 2.4887 -0.58375 0 
2301 1.8071 -0.56525 0 
2305 1.8639 -0.56525 0 
2309 1.9207 -0.56525 0 
2313 1.9775 -0.56525 0 
2317 2.0343 -0.56525 0 
2321 2.0911 -0.56525 0 
2325 2.1479 -0.56525 0 
2329 2.2047 -0.56525 0 
2333 2.2615 -0.56525 0 
2337 2.3183 -0.56525 0 
2341 2.3751 -0.56525 0 
2345 2.4319 -0.56525 0 
2349 2.4887 -0.56525 0 
2401 1.8071 -0.54675 0 
2405 1.8639 -0.54675 0 
2409 1.9207 -0.54675 0 
2413 1.9775 -0.54675 0 
2417 2.0343 -0.54675 0 
2421 2.0911 -0.54675 0 
2425 2.1479 -0.54675 0 
2429 2.2047 -0.54675 0 
2433 2.2615 -0.54675 0 
2437 2.3183 -0.54675 0 
2441 2.3751 -0.54675 0 
2445 2.4319 -0.54675 0 
2449 2.4887 -0.54675 0 
2501 1.8071 -0.52825 0 
2505 1.8639 -0.52825 0 
2509 1.9207 -0.52825 0 
2513 1.9775 -0.52825 0 
2517 2.0343 -0.52825 0 
2521 2.0911 -0.52825 0 
2525 2.1479 -0.52825 0 
2529 2.2047 -0.52825 0 
2533 2.2615 -0.52825 0 
2537 2.3183 -0.52825 0 
2541 2.3751 -0.52825 0 
2545 2.4319 -0.52825 0 
2549 2.4887 -0.52825 0 
2601 1.8071 -0.50975 0 
2605 1.8639 -0.50975 0 
2609 1.9207 -0.50975 0 
2613 1.9775 -0.50975 0 
2617 2.0343 -0.50975 0 
2621 2.0911 -0.50975 0 
2625 2.1479 -0.50975 0 
2629 2.2047 -0.50975 0 
2633 2.2615 -0.50975 0 
2637 2.3183 -0.50975 0 
2641 2.3751 -0.50975 0 
2645 2.4319 -0.50975 0 
2649 2.4887 -0.50975 0 
2701 1.8071 -0.49125 0 
2705 1.8639 -0.49125 0 
2709 1.9207 -0.49125 0 
2713 1.9775 -0.49125 0 
2717 2.0343 -0.49125 0 
2721 2.0911 -0.49125 0 
2725 2.1479 -0.49125 0 
2729 2.2047 -0.49125 0 
2733 2.2615 -0.49125 0 
2737 2.3183 -0.49125 0 
2741 2.3751 -0.49125 0 
2745 2.4319 -0.49125 0 
2749 2.4887 -0.49125 0 
2801 1.8071 -0.47275 0 
2805 1.8639 -0.47275 0 
2809 1.9207 -0.47275 0 
2813 1.9775 -0.47275 0 
2817 2.0343 -0.47275 0 
2821 2.0911 -0.47275 0 
2825 2.1479 -0.47275 0 
2829 2.2047 -0.47275 0 
2833 2.2615 -0.47275 0 
2837 2.3183 -0.47275 0 
2841 2.3751 -0.47275 0 
2845 2.4319 -0.47275 0 
2849 2.4887 -0.47275 0 
2901 1.8071 -0.45425 0 
2905 1.8639 -0.45425 0 
2909 1.9207 -0.45425 0 
2913 1.9775 -0.45425 0 
2917 2.0343 -0.45425 0 
2921 2.0911 -0.45425 0 
2925 2.1479 -0.45425 0 
2929 2.2047 -0.45425 0 
2933 2.2615 -0.45425 0 
2937 2.3183 -0.45425 0 
2941 2.3751 -0.45425 0 
2945 2.4319 -0.45425 0 
2949 2.4887 -0.45425 0 
3001 1.8071 -0.43575 0 
3005 1.8639 -0.43575 0 
3009 1.9207 -0.43575 0 
3013 1.9775 -0.43575 0 
3017 2.0343 -0.43575 0 
3021 2.0911 -0.43575 0 
3025 2.1479 -0.43575 0 
3029 2.2047 -0.43575 0 
3033 2.2615 -0.43575 0 
3037 2.3183 -0.43575 0 
3041 2.3751 -0.43575 0 
3045 2.4319 -0.43575 0 
3049 2.4887 -0.43575 0 
3101 1.8071 -0.41725 0 
3105 1.8639 -0.41725 0 
3109 1.9207 -0.41725 0 
3113 1.9775 -0.41725 0 
3117 2.0343 -0.41725 0 
3121 2.0911 -0.41725 0 
3125 2.1479 -0.41725 0 
3129 2.2047 -0.41725 0 
3133 2.2615 -0.41725 0 
3137 2.3183 -0.41725 0 
3141 2.3751 -0.41725 0 
3145 2.4319 -0.41725 0 
3149 2.4887 -0.41725 0 
3201 1.8071 -0.39875 0 
3205 1.8639 -0.39875 0 
3209 1.9207 -0.39875 0 
3213 1.9775 -0.39875 0 
3217 2.0343 -0.39875 0 
3221 2.0911 -0.39875 0 
3225 2.1479 -0.39875 0 
3229 2.2047 -0.39875 0 
3233 2.2615 -0.39875 0 
3237 2.3183 -0.39875 0 
3241 2.3751 -0.39875 0 
3245 2.4319 -0.39875 0 
3249 2.4887 -0.39875 0 
3301 1.8071 -0.38025 0 
3305 1.8639 -0.38025 0 
3309 1.9207 -0.38025 0 
3313 1.9775 -0.38025 0 
3317 2.0343 -0.38025 0 
3321 2.0911 -0.38025 0 
3325 2.1479 -0.38025 0 
3329 2.2047 -0.38025 0 
3333 2.2615 -0.38025 0 
3337 2.3183 -0.38025 0 
3341 2.3751 -0.38025 0 
3345 2.4319 -0.38025 0 
3349 2.4887 -0.38025 0 
3401 1.8071 -0.36175 0 
3405 1.8639 -0.36175 0 
3409 1.9207 -0.36175 0 
3413 1.9775 -0.36175 0 
3417 2.0343 -0.36175 0 
3421 2.0911 -0.36175 0 
3425 2.1479 -0.36175 0 
3429 2.2047 -0.36175 0 
3433 2.2615 -0.36175 0 
3437 2.3183 -0.36175 0 
3441 2.3751 -0.36175 0 
3445 2.4319 -0.36175 0 
3449 2.4887 -0.36175 0 
3501 1.8071 -0.34325 0 
3505 1.8639 -0.34325 0 
3509 1.9207 -0.34325 0 
3513 1.9775 -0.34325 0 
3517 2.0343 -0.34325 0 
3521 2.0911 -0.34325 0 
3525 2.1479 -0.34325 0 
3529 2.2047 -0.34325 0 
3533 2.2615 -0.34325 0 
3537 2.3183 -0.34325 0 
3541 2.3751 -0.34325 0 
3545 2.4319 -0.34325 0 
3549 2.4887 -0.34325 0 
3601 1.8071 -0.32475 0 
3605 1.8639 -0.32475 0 
3609 1.9207 -0.32475 0 
3613 1.9775 -0.32475 0 
3617 2.0343 -0.32475 0 
3621 2.0911 -0.32475 0 
3625 2.1479 -0.32475 0 
3629 2.2047 -0.32475 0 
3633 2.2615 -0.32475 0 
3637 2.3183 -0.32475 0 
3641 2.3751 -0.32475 0 
3645 2.4319 -0.32475 0 
3649 2.4887 -0.32475 0 
3701 1.8071 -0.30625 0 
3705 1.8639 -0.30625 0 
3709 1.9207 -0.30625 0 
3713 1.9775 -0.30625 0 
3717 2.0343 -0.30625 0 
3721 2.0911 -0.30625 0 
3725 2.1479 -0.30625 0 
3729 2.2047 -0.30625 0 
3733 2.2615 -0.30625 0 
3737 2.3183 -0.30625 0 
3741 2.3751 -0.30625 0 
3745 2.4319 -0.30625 0 
3749 2.4887 -0.30625 0 
3801 1.8071 -0.28775 0 
3805 1.8639 -0.28775 0 
3809 1.9207 -0.28775 0 
3813 1.9775 -0.28775 0 
3817 2.0343 -0.28775 0 
3821 2.0911 -0.28775 0 
3825 2.1479 -0.28775 0 
3829 2.2047 -0.28775 0 
3833 2.2615 -0.28775 0 
3837 2.3183 -0.28775 0 
3841 2.3751 -0.28775 0 
3845 2.4319 -0.28775 0 
3849 2.4887 -0.28775 0 
3901 1.8071 -0.26925 0 
3905 1.8639 -0.26925 0 
3909 1.9207 -0.26925 0 
3913 1.9775 -0.26925 0 
3917 2.0343 -0.26925 0 
3921 2.0911 -0.26925 0 
3925 2.1479 -0.26925 0 
3929 2.2047 -0.26925 0 
3933 2.2615 -0.26925 0 
3937 2.3183 -0.26925 0 
3941 2.3751 -0.26925 0 
3945 2.4319 -0.26925 0 
3949 2.4887 -0.26925 0 
4001 1.8071 -0.25075 0 
4005 1.8639 -0.25075 0 
4009 1.9207 -0.25075 0 
4013 1.9775 -0.25075 0 
4017 2.0343 -0.25075 0 
4021 2.0911 -0.25075 0 
4025 2.1479 -0.25075 0 
4029 2.2047 -0.25075 0 
4033 2.2615 -0.25075 0 
4037 2.3183 -0.25075 0 
4041 2.3751 -0.25075 0 
4045 2.4319 -0.25075 0 
4049 2.4887 -0.25075 0 
4101 1.8071 -0.23225 0 
4105 1.8639 -0.23225 0 
4109 1.9207 -0.23225 0 
4113 1.9775 -0.23225 0 
4117 2.0343 -0.23225 0 
4121 2.0911 -0.23225 0 
4125 2.1479 -0.23225 0 
4129 2.2047 -0.23225 0 
4133 2.2615 -0.23225 0 
4137 2.3183 -0.23225 0 
4141 2.3751 -0.23225 0 
4145 2.4319 -0.23225 0 
4149 2.4887 -0.23225 0 
4201 1.8071 -0.21375 0 
4205 1.8639 -0.21375 0 
4209 1.9207 -0.21375 0 
4213 1.9775 -0.21375 0 
4217 2.0343 -0.21375 0 
4221 2.0911 -0.21375 0 
4225 2.1479 -0.21375 0 
4229 2.2047 -0.21375 0 
4233 2.2615 -0.21375 0 
4237 2.3183 -0.21375 0 
4241 2.3751 -0.21375 0 
4245 2.4319 -0.21375 0 
4249 2.4887 -0.21375 0 
4301 1.8071 -0.19525 0 
4305 1.8639 -0.19525 0 
4309 1.9207 -0.19525 0 
4313 1.9775 -0.19525 0 
4317 2.0343 -0.19525 0 
4321 2.0911 -0.19525 0 
4325 2.1479 -0.19525 0 
4329 2.2047 -0.19525 0 
4333 2.2615 -0.19525 0 
4337 2.3183 -0.19525 0 
4341 2.3751 -0.19525 0 
4345 2.4319 -0.19525 0 
4349 2.4887 -0.19525 0 
4401 1.8071 -0.17675 0 
4405 1.8639 -0.17675 0 
4409 1.9207 -0.17675 0 
4413 1.9775 -0.17675 0 
4417 2.0343 -0.17675 0 
4421 2.0911 -0.17675 0 
4425 2.1479 -0.17675 0 
4429 2.2047 -0.17675 0 
4433 2.2615 -0.17675 0 
4437 2.3183 -0.17675 0 
4441 2.3751 -0.17675 0 
4445 2.4319 -0.17675 0 
4449 2.4887 -0.17675 0 
4501 1.8071 -0.15825 0 
4505 1.8639 -0.15825 0 
4509 1.9207 -0.15825 0 
4513 1.9775 -0.15825 0 
4517 2.0343 -0.15825 0 
4521 2.0911 -0.15825 0 
4525 2.1479 -0.15825 0 
4529 2.2047 -0.15825 0 
4533 2.2615 -0.15825 0 
4537 2.3183 -0.15825 0 
4541 2.3751 -0.15825 0 
4545 2.4319 -0.15825 0 
4549 2.4887 -0.15825 0 
4601 1.8071 -0.13975 0 
4605 1.8639 -0.13975 0 
4609 1.9207 -0.13975 0 
4613 1.9775 -0.13975 0 
4617 2.0343 -0.13975 0 
4621 2.0911 -0.13975 0 
4625 2.1479 -0.13975 0 
4629 2.2047 -0.13975 0 
4633 2.2615 -0.13975 0 
4637 2.3183 -0.13975 0 
4641 2.3751 -0.13975 0 
4645 2.4319 -0.13975 0 
4649 2.4887 -0.13975 0 
4701 1.8071 -0.12125 0 
4705 1.8639 -0.12125 0 
4709 1.9207 -0.12125 0 
4713 1.9775 -0.12125 0 
4717 2.0343 -0.12125 0 
4721 2.0911 -0.12125 0 
4725 2.1479 -0.12125 0 
4729 2.2047 -0.12125 0 
4733 2.2615 -0.12125 0 
4737 2.3183 -0.12125 0 
4741 2.3751 -0.12125 0 
4745 2.4319 -0.12125 0 
4749 2.4887 -0.12125 0 
4801 1.8071 -0.10275 0 
4805 1.8639 -0.10275 0 
4809 1.9207 -0.10275 0 
4813 1.9775 -0.10275 0 
4817 2.0343 -0.10275 0 
4821 2.0911 -0.10275 0 
4825 2.1479 -0.10275 0 
4829 2.2047 -0.10275 0 
4833 2.2615 -0.10275 0 
4837 2.3183 -0.10275 0 
4841 2.3751 -0.10275 0 
4845 2.4319 -0.10275 0 
4849 2.4887 -0.10275 0 
4901 1.8071 -0.08425 0 
4905 1.8639 -0.08425 0 
4909 1.9207 -0.08425 0 
4913 1.9775 -0.08425 0 
4917 2.0343 -0.08425 0 
4921 2.0911 -0.08425 0 
4925 2.1479 -0.08425 0 
4929 2.2047 -0.08425 0 
4933 2.2615 -0.08425 0 
4937 2.3183 -0.08425 0 
4941 2.3751 -0.08425 0 
4945 2.4319 -0.08425 0 
4949 2.4887 -0.08425 0 
3 1.8355 -0.99075 0 
7 1.8923 -0.99075 0 
11 1.9491 -0.99075 0 
15 2.0059 -0.99075 0 
19 2.0627 -0.99075 0 
23 2.1195 -0.99075 0 
27 2.1763 -0.99075 0 
31 2.2331 -0.99075 0 
35 2.2899 -0.99075 0 
39 2.3467 -0.99075 0 
43 2.4035 -0.99075 0 
47 2.4603 -0.99075 0 
103 1.8355 -0.97225 0 
107 1.8923 -0.97225 0 
111 1.9491 -0.97225 0 
115 2.0059 -0.97225 0 
119 2.0627 -0.97225 0 
123 2.1195 -0.97225 0 
127 2.1763 -0.97225 0 
131 2.2331 -0.97225 0 
135 2.2899 -0.97225 0 
139 2.3467 -0.97225 0 
143 2.4035 -0.97225 0 
147 2.4603 -0.97225 0 
203 1.8355 -0.95375 0 
207 1.8923 -0.95375 0 
211 1.9491 -0.95375 0 
215 2.0059 -0.95375 0 
219 2.0627 -0.95375 0 
223 2.1195 -0.95375 0 
227 2.1763 -0.95375 0 
231 2.2331 -0.95375 0 
235 2.2899 -0.95375 0 
239 2.3467 -0.95375 0 
243 2.4035 -0.95375 0 
247 2.4603 -0.95375 0 
303 1.8355 -0.93525 0 
307 1.8923 -0.93525 0 
311 1.9491 -0.93525 0 
315 2.0059 -0.93525 0 
319 2.0627 -0.93525 0 
323 2.1195 -0.93525 0 
327 2.1763 -0.93525 0 
331 2.2331 -0.93525 0 
335 2.2899 -0.93525 0 
339 2.3467 -0.93525 0 
343 2.4035 -0.93525 0 
347 2.4603 -0.93525 0 
403 1.8355 -0.91675 0 
407 1.8923 -0.91675 0 
411 1.9491 -0.91675 0 
415 2.0059 -0.91675 0 
419 2.0627 -0.91675 0 
423 2.1195 -0.91675 0 
427 2.1763 -0.91675 0 
431 2.2331 -0.91675 0 
435 2.2899 -0.91675 0 
439 2.3467 -0.91675 0 
443 2.4035 -0.91675 0 
447 2.4603 -0.91675 0 
503 1.8355 -0.89825 0 
507 1.8923 -0.89825 0 
511 1.9491 -0.89825 0 
515 2.0059 -0.89825 0 
519 2.0627 -0.89825 0 
523 2.1195 -0.89825 0 
527 2.1763 -0.89825 0 
531 2.2331 -0.89825 0 
535 2.2899 -0.89825 0 
539 2.3467 -0.89825 0 
543 2.4035 -0.89825 0 
547 2.4603 -0.89825 0 
603 1.8355 -0.87975 0 
607 1.8923 -0.87975 0 
611 1.9491 -0.87975 0 
615 2.0059 -0.87975 0 
619 2.0627 -0.87975 0 
623 2.1195 -0.87975 0 
627 2.1763 -0.87975 0 
631 2.2331 -0.87975 0 
635 2.2899 -0.87975 0 
639 2.3467 -0.87975 0 
643 2.4035 -0.87975 0 
647 2.4603 -0.87975 0 
703 1.8355 -0.86125 0 
707 1.8923 -0.86125 0 
711 1.9491 -0.86125 0 
715 2.0059 -0.86125 0 
719 2.0627 -0.86125 0 
723 2.1195 -0.86125 0 
727 2.1763 -0.86125 0 
731 2.2331 -0.86125 0 
735 2.2899 -0.86125 0 
739 2.3467 -0.86125 0 
743 2.4035 -0.86125 0 
747 2.4603 -0.86125 0 
803 1.8355 -0.84275 0 
807 1.8923 -0.84275 0 
811 1.9491 -0.84275 0 
815 2.0059 -0.84275 0 
819 2.0627 -0.84275 0 
823 2.1195 -0.84275 0 
827 2.1763 -0.84275 0 
831 2.2331 -0.84275 0 
835 2.2899 -0.84275 0 
839 2.3467 -0.84275 0 
843 2.4035 -0.84275 0 
847 2.4603 -0.84275 0 
903 1.8355 -0.82425 0 
907 1.8923 -0.82425 0 
911 1.9491 -0.82425 0 
915 2.0059 -0.82425 0 
919 2.0627 -0.82425 0 
923 2.1195 -0.82425 0 
927 2.1763 -0.82425 0 
931 2.2331 -0.82425 0 
935 2.2899 -0.82425 0 
939 2.3467 -0.82425 0 
943 2.4035 -0.82425 0 
947 2.4603 -0.82425 0 
1003 1.8355 -0.80575 0 
1007 1.8923 -0.80575 0 
1011 1.9491 -0.80575 0 
1015 2.0059 -0.80575 0 
1019 2.0627 -0.80575 0 
1023 2.1195 -0.80575 0 
1027 2.1763 -0.80575 0 
1031 2.2331 -0.80575 0 
1035 2.2899 -0.80575 0 
1039 2.3467 -0.80575 0 
1043 2.4035 -0.80575 0 
1047 2.4603 -0.80575 0 
1103 1.8355 -0.78725 0 
1107 1.8923 -0.78725 0 
1111 1.9491 -0.78725 0 
1115 2.0059 -0.78725 0 
1119 2.0627 -0.78725 0 
1123 2.1195 -0.78725 0 
1127 2.1763 -0.78725 0 
1131 2.2331 -0.78725 0 
1135 2.2899 -0.78725 0 
1139 2.3467 -0.78725 0 
1143 2.4035 -0.78725 0 
1147 2.4603 -0.78725 0 
1203 1.8355 -0.76875 0 
1207 1.8923 -0.76875 0 
1211 1.9491 -0.76875 0 
1215 2.0059 -0.76875 0 
1219 2.0627 -0.76875 0 
1223 2.1195 -0.76875 0 
1227 2.1763 -0.76875 0 
1231 2.2331 -0.76875 0 
1235 2.2899 -0.76875 0 
1239 2.3467 -0.76875 0 
1243 2.4035 -0.76875 0 
1247 2.4603 -0.76875 0 
1303 1.8355 -0.75025 0 
1307 1.8923 -0.75025 0 
1311 1.9491 -0.75025 0 
1315 2.0059 -0.75025 0 
1319 2.0627 -0.75025 0 
1323 2.1195 -0.75025 0 
1327 2.1763 -0.75025 0 
1331 2.2331 -0.75025 0 
1335 2.2899 -0.75025 0 
1339 2.3467 -0.75025 0 
1343 2.4035 -0.75025 0 
1347 2.4603 -0.75025 0 
1403 1.8355 -0.73175 0 
1407 1.8923 -0.73175 0 
1411 1.9491 -0.73175 0 
1415 2.0059 -0.73175 0 
1419 2.0627 -0.73175 0 
1423 2.1195 -0.73175 0 
1427 2.1763 -0.73175 0 
1431 2.2331 -0.73175 0 
1435 2.2899 -0.73175 0 
1439 2.3467 -0.73175 0 
1443 2.4035 -0.73175 0 
1447 2.4603 -0.73175 0 
1503 1.8355 -0.71325 0 
1507 1.8923 -0.71325 0 
1511 1.9491 -0.71325 0 
1515 2.0059 -0.71325 0 
1519 2.0627 -0.71325 0 
1523 2.1195 -0.71325 0 
1527 2.1763 -0.71325 0 
1531 2.2331 -0.71325 0 
1535 2.2899 -0.71325 0 
1539 2.3467 -0.71325 0 
1543 2.4035 -0.71325 0 
1547 2.4603 -0.71325 0 
1603 1.8355 -0.69475 0 
1607 1.8923 -0.69475 0 
1611 1.9491 -0.69475 0 
1615 2.0059 -0.69475 0 
1619 2.0627 -0.69475 0 
1623 2.1195 -0.69475 0 
1627 2.1763 -0.69475 0 
1631 2.2331 -0.69475 0 
1635 2.2899 -0.69475 0 
1639 2.3467 -0.69475 0 
1643 2.4035 -0.69475 0 
1647 2.4603 -0.69475 0 
1703 1.8355 -0.67625 0 
1707 1.8923 -0.67625 0 
1711 1.9491 -0.67625 0 
1715 2.0059 -0.67625 0 
1719 2.0627 -0.67625 0 
1723 2.1195 -0.67625 0 
1727 2.1763 -0.67625 0 
1731 2.2331 -0.67625 0 
1735 2.2899 -0.67625 0 
1739 2.3467 -0.67625 0 
1743 2.4035 -0.67625 0 
1747 2.4603 -0.67625 0 
1803 1.8355 -0.65775 0 
1807 1.8923 -0.65775 0 
1811 1.9491 -0.65775 0 
1815 2.0059 -0.65775 0 
1819 2.0627 -0.65775 0 
1823 2.1195 -0.65775 0 
1827 2.1763 -0.65775 0 
1831 2.2331 -0.65775 0 
1835 2.2899 -0.65775 0 
1839 2.3467 -0.65775 0 
1843 2.4035 -0.65775 0 
1847 2.4603 -0.65775 0 
1903 1.8355 -0.63925 0 
1907 1.8923 -0.63925 0 
1911 1.9491 -0.63925 0 
1915 2.0059 -0.63925 0 
1919 2.0627 -0.63925 0 
1923 2.1195 -0.63925 0 
1927 2.1763 -0.63925 0 
1931 2.2331 -0.63925 0 
1935 2.2899 -0.63925 0 
1939 2.3467 -0.63925 0 
1943 2.4035 -0.63925 0 
1947 2.4603 -0.63925 0 
2003 1.8355 -0.62075 0 
2007 1.8923 -0.62075 0 
2011 1.9491 -0.62075 0 
2015 2.0059 -0.62075 0 
2019 2.0627 -0.62075 0 
2023 2.1195 -0.62075 0 
2027 2.1763 -0.62075 0 
2031 2.2331 -0.62075 0 
2035 2.2899 -0.62075 0 
2039 2.3467 -0.62075 0 
2043 2.4035 -0.62075 0 
2047 2.4603 -0.62075 0 
2103 1.8355 -0.60225 0 
2107 1.8923 -0.60225 0 
2111 1.9491 -0.60225 0 
2115 2.0059 -0.60225 0 
2119 2.0627 -0.60225 0 
2123 2.1195 -0.60225 0 
2127 2.1763 -0.60225 0 
2131 2.2331 -0.60225 0 
2135 2.2899 -0.60225 0 
2139 2.3467 -0.60225 0 
2143 2.4035 -0.60225 0 
2147 2.4603 -0.60225 0 
2203 1.8355 -0.58375 0 
2207 1.8923 -0.58375 0 
2211 1.9491 -0.58375 0 
2215 2.0059 -0.58375 0 
2219 2.0627 -0.58375 0 
2223 2.1195 -0.58375 0 
2227 2.1763 -0.58375 0 
2231 2.2331 -0.58375 0 
2235 2.2899 -0.58375 0 
2239 2.3467 -0.58375 0 
2243 2.4035 -0.58375 0 
2247 2.4603 -0.58375 0 
2303 1.8355 -0.56525 0 
2307 1.8923 -0.56525 0 
2311 1.9491 -0.56525 0 
2315 2.0059 -0.56525 0 
2319 2.0627 -0.56525 0 
2323 2.1195 -0.56525 0 
2327 2.1763 -0.56525 0 
2331 2.2331 -0.56525 0 
2335 2.2899 -0.56525 0 
2339 2.3467 -0.56525 0 
2343 2.4035 -0.56525 0 
2347 2.4603 -0.56525 0 
2403 1.8355 -0.54675 0 
2407 1.8923 -0.54675 0 
2411 1.9491 -0.54675 0 
2415 2.0059 -0.54675 0 
2419 2.0627 -0.54675 0 
2423 2.1195 -0.54675 0 
2427 2.1763 -0.54675 0 
2431 2.2331 -0.54675 0 
2435 2.2899 -0.54675 0 
2439 2.3467 -0.54675 0 
2443 2.4035 -0.54675 0 
2447 2.4603 -0.54675 0 
2503 1.8355 -0.52825 0 
2507 1.8923 -0.52825 0 
2511 1.9491 -0.52825 0 
2515 2.0059 -0.52825 0 
2519 2.0627 -0.52825 0 
2523 2.1195 -0.52825 0 
2527 2.1763 -0.52825 0 
2531 2.2331 -0.52825 0 
2535 2.2899 -0.52825 0 
2539 2.3467 -0.52825 0 
2543 2.4035 -0.52825 0 
2547 2.4603 -0.52825 0 
2603 1.8355 -0.50975 0 
2607 1.8923 -0.50975 0 
2611 1.9491 -0.50975 0 
2615 2.0059 -0.50975 0 
2619 2.0627 -0.50975 0 
2623 2.1195 -0.50975 0 
2627 2.1763 -0.50975 0 
2631 2.2331 -0.50975 0 
2635 2.2899 -0.50975 0 
2639 2.3467 -0.50975 0 
2643 2.4035 -0.50975 0 
2647 2.4603 -0.50975 0 
2703 1.8355 -0.49125 0 
2707 1.8923 -0.49125 0 
2711 1.9491 -0.49125 0 
2715 2.0059 -0.49125 0 
2719 2.0627 -0.49125 0 
2723 2.1195 -0.49125 0 
2727 2.1763 -0.49125 0 
2731 2.2331 -0.49125 0 
2735 2.2899 -0.49125 0 
2739 2.3467 -0.49125 0 
2743 2.4035 -0.49125 0 
2747 2.4603 -0.49125 0 
2803 1.8355 -0.47275 0 
2807 1.8923 -0.47275 0 
2811 1.9491 -0.47275 0 
2815 2.0059 -0.47275 0 
2819 2.0627 -0.47275 0 
2823 2.1195 -0.47275 0 
2827 2.1763 -0.47275 0 
2831 2.2331 -0.47275 0 
2835 2.2899 -0.47275 0 
2839 2.3467 -0.47275 0 
2843 2.4035 -0.47275 0 
2847 2.4603 -0.47275 0 
2903 1.8355 -0.45425 0 
2907 1.8923 -0.45425 0 
2911 1.9491 -0.45425 0 
2915 2.0059 -0.45425 0 
2919 2.0627 -0.45425 0 
2923 2.1195 -0.45425 0 
2927 2.1763 -0.45425 0 
2931 2.2331 -0.45425 0 
2935 2.2899 -0.45425 0 
2939 2.3467 -0.45425 0 
2943 2.4035 -0.45425 0 
2947 2.4603 -0.45425 0 
3003 1.8355 -0.43575 0 
3007 1.8923 -0.43575 0 
3011 1.9491 -0.43575 0 
3015 2.0059 -0.43575 0 
3019 2.0627 -0.43575 0 
3023 2.1195 -0.43575 0 
3027 2.1763 -0.43575 0 
3031 2.2331 -0.43575 0 
3035 2.2899 -0.43575 0 
3039 2.3467 -0.43575 0 
3043 2.4035 -0.43575 0 
3047 2.4603 -0.43575 0 
3103 1.8355 -0.41725 0 
3107 1.8923 -0.41725 0 
3111 1.9491 -0.41725 0 
3115 2.0059 -0.41725 0 
3119 2.0627 -0.41725 0 
3123 2.1195 -0.41725 0 
3127 2.1763 -0.41725 0 
3131 2.2331 -0.41725 0 
3135 2.2899 -0.41725 0 
3139 2.3467 -0.41725 0 
3143 2.4035 -0.41725 0 
3147 2.4603 -0.41725 0 
3203 1.8355 -0.39875 0 
3207 1.8923 -0.39875 0 
3211 1.9491 -0.39875 0 
3215 2.0059 -0.39875 0 
3219 2.0627 -0.39875 0 
3223 2.1195 -0.39875 0 
3227 2.1763 -0.39875 0 
3231 2.2331 -0.39875 0 
3235 2.2899 -0.39875 0 
3239 2.3467 -0.39875 0 
3243 2.4035 -0.39875 0 
3247 2.4603 -0.39875 0 
3303 1.8355 -0.38025 0 
3307 1.8923 -0.38025 0 
3311 1.9491 -0.38025 0 
3315 2.0059 -0.38025 0 
3319 2.0627 -0.38025 0 
3323 2.1195 -0.38025 0 
3327 2.1763 -0.38025 0 
3331 2.2331 -0.38025 0 
3335 2.2899 -0.38025 0 
3339 2.3467 -0.38025 0 
3343 2.4035 -0.38025 0 
3347 2.4603 -0.38025 0 
3403 1.8355 -0.36175 0 
3407 1.8923 -0.36175 0 
3411 1.9491 -0.36175 0 
3415 2.0059 -0.36175 0 
3419 2.0627 -0.36175 0 
3423 2.1195 -0.36175 0 
3427 2.1763 -0.36175 0 
3431 2.2331 -0.36175 0 
3435 2.2899 -0.36175 0 
3439 2.3467 -0.36175 0 
3443 2.4035 -0.36175 0 
3447 2.4603 -0.36175 0 
3503 1.8355 -0.34325 0 
3507 1.8923 -0.34325 0 
3511 1.9491 -0.34325 0 
3515 2.0059 -0.34325 0 
3519 2.0627 -0.34325 0 
3523 2.1195 -0.34325 0 
3527 2.1763 -0.34325 0 
3531 2.2331 -0.34325 0 
3535 2.2899 -0.34325 0 
3539 2.3467 -0.34325 0 
3543 2.4035 -0.34325 0 
3547 2.4603 -0.34325 0 
3603 1.8355 -0.32475 0 
3607 1.8923 -0.32475 0 
3611 1.9491 -0.32475 0 
3615 2.0059 -0.32475 0 
3619 2.0627 -0.32475 0 
3623 2.1195 -0.32475 0 
3627 2.1763 -0.32475 0 
3631 2.2331 -0.32475 0 
3635 2.2899 -0.32475 0 
3639 2.3467 -0.32475 0 
3643 2.4035 -0.32475 0 
3647 2.4603 -0.32475 0 
3703 1.8355 -0.30625 0 
3707 1.8923 -0.30625 0 
3711 1.9491 -0.30625 0 
3715 2.0059 -0.30625 0 
3719 2.0627 -0.30625 0 
3723 2.1195 -0.30625 0 
3727 2.1763 -0.30625 0 
3731 2.2331 -0.30625 0 
3735 2.2899 -0.30625 0 
3739 2.3467 -0.30625 0 
3743 2.4035 -0.30625 0 
3747 2.4603 -0.30625 0 
3803 1.8355 -0.28775 0 
3807 1.8923 -0.28775 0 
3811 1.9491 -0.28775 0 
3815 2.0059 -0.28775 0 
3819 2.0627 -0.28775 0 
3823 2.1195 -0.28775 0 
3827 2.1763 -0.28775 0 
3831 2.2331 -0.28775 0 
3835 2.2899 -0.28775 0 
3839 2.3467 -0.28775 0 
3843 2.4035 -0.28775 0 
3847 2.4603 -0.28775 0 
3903 1.8355 -0.26925 0 
3907 1.8923 -0.26925 0 
3911 1.9491 -0.26925 0 
3915 2.0059 -0.26925 0 
3919 2.0627 -0.26925 0 
3923 2.1195 -0.26925 0 
3927 2.1763 -0.26925 0 
3931 2.2331 -0.26925 0 
3935 2.2899 -0.26925 0 
3939 2.3467 -0.26925 0 
3943 2.4035 -0.26925 0 
3947 2.4603 -0.26925 0 
4003 1.8355 -0.25075 0 
4007 1.8923 -0.25075 0 
4011 1.9491 -0.25075 0 
4015 2.0059 -0.25075 0 
4019 2.0627 -0.25075 0 
4023 2.1195 -0.25075 0 
4027 2.1763 -0.25075 0 
4031 2.2331 -0.25075 0 
4035 2.2899 -0.25075 0 
4039 2.3467 -0.25075 0 
4043 2.4035 -0.25075 0 
4047 2.4603 -0.25075 0 
4103 1.8355 -0.23225 0 
4107 1.8923 -0.23225 0 
4111 1.9491 -0.23225 0 
4115 2.0059 -0.23225 0 
4119 2.0627 -0.23225 0 
4123 2.1195 -0.23225 0 
4127 2.1763 -0.23225 0 
4131 2.2331 -0.23225 0 
4135 2.2899 -0.23225 0 
4139 2.3467 -0.23225 0 
4143 2.4035 -0.23225 0 
4147 2.4603 -0.23225 0 
4203 1.8355 -0.21375 0 
4207 1.8923 -0.21375 0 
4211 1.9491 -0.21375 0 
4215 2.0059 -0.21375 0 
4219 2.0627 -0.21375 0 
4223 2.1195 -0.21375 0 
4227 2.1763 -0.21375 0 
4231 2.2331 -0.21375 0 
4235 2.2899 -0.21375 0 
4239 2.3467 -0.21375 0 
4243 2.4035 -0.21375 0 
4247 2.4603 -0.21375 0 
4303 1.8355 -0.19525 0 
4307 1.8923 -0.19525 0 
4311 1.9491 -0.19525 0 
4315 2.0059 -0.19525 0 
4319 2.0627 -0.19525 0 
4323 2.1195 -0.19525 0 
4327 2.1763 -0.19525 0 
4331 2.2331 -0.19525 0 
4335 2.2899 -0.19525 0 
4339 2.3467 -0.19525 0 
4343 2.4035 -0.19525 0 
4347 2.4603 -0.19525 0 
4403 1.8355 -0.17675 0 
4407 1.8923 -0.17675 0 
4411 1.9491 -0.17675 0 
4415 2.0059 -0.17675 0 
4419 2.0627 -0.17675 0 
4423 2.1195 -0.17675 0 
4427 2.1763 -0.17675 0 
4431 2.2331 -0.17675 0 
4435 2.2899 -0.17675 0 
4439 2.3467 -0.17675 0 
4443 2.4035 -0.17675 0 
4447 2.4603 -0.17675 0 
4503 1.8355 -0.15825 0 
4507 1.8923 -0.15825 0 
4511 1.9491 -0.15825 0 
4515 2.0059 -0.15825 0 
4519 2.0627 -0.15825 0 
4523 2.1195 -0.15825 0 
4527 2.1763 -0.15825 0 
4531 2.2331 -0.15825 0 
4535 2.2899 -0.15825 0 
4539 2.3467 -0.15825 0 
4543 2.4035 -0.15825 0 
4547 2.4603 -0.15825 0 
4603 1.8355 -0.13975 0 
4607 1.8923 -0.13975 0 
4611 1.9491 -0.13975 0 
4615 2.0059 -0.13975 0 
4619 2.0627 -0.13975 0 
4623 2.1195 -0.13975 0 
4627 2.1763 -0.13975 0 
4631 2.2331 -0.13975 0 
4635 2.2899 -0.13975 0 
4639 2.3467 -0.13975 0 
4643 2.4035 -0.13975 0 
4647 2.4603 -0.13975 0 
4703 1.8355 -0.12125 0 
4707 1.8923 -0.12125 0 
4711 1.9491 -0.12125 0 
4715 2.0059 -0.12125 0 
4719 2.0627 -0.12125 0 
4723 2.1195 -0.12125 0 
4727 2.1763 -0.12125 0 
4731 2.2331 -0.12125 0 
4735 2.2899 -0.12125 0 
4739 2.3467 -0.12125 0 
4743 2.4035 -0.12125 0 
4747 2.4603 -0.12125 0 
4803 1.8355 -0.10275 0 
4807 1.8923 -0.10275 0 
4811 1.9491 -0.10275 0 
4815 2.0059 -0.10275 0 
4819 2.0627 -0.10275 0 
4823 2.1195 -0.10275 0 
4827 2.1763 -0.10275 0 
4831 2.2331 -0.10275 0 
4835 2.2899 -0.10275 0 
4839 2.3467 -0.10275 0 
4843 2.4035 -0.10275 0 
4847 2.4603 -0.10275 0 
4903 1.8355 -0.08425 0 
4907 1.8923 -0.08425 0 
4911 1.9491 -0.08425 0 
4915 2.0059 -0.08425 0 
4919 2.0627 -0.08425 0 
4923 2.1195 -0.08425 0 
4927 2.1763 -0.08425 0 
4931 2.2331 -0.08425 0 
4935 2.2899 -0.08425 0 
4939 2.3467 -0.08425 0 
4943 2.4035 -0.08425 0 
4947 2.4603 -0.08425 0 
4 1.8497 -0.99075 0 
8 1.9065 -0.99075 0 
12 1.9633 -0.99075 0 
16 2.0201 -0.99075 0 
20 2.0769 -0.99075 0 
24 2.1337 -0.99075 0 
28 2.1905 -0.99075 0 