ITEM: TIMESTEP
0
ITEM: NUMBER OF CELLS
400
ITEM: BOX BOUNDS oo rr pp
0 10
0 10
-0.5 0.5
ITEM: CELLS id xc yc f_2[*] 
1 0.25 0.25 0 
5 2.25 0.25 0 
9 4.25 0.25 0 
21 0.25 0.75 0 
25 2.25 0.75 0 
29 4.25 0.75 0 
41 0.25 1.25 0 
45 2.25 1.25 0 
49 4.25 1.25 0 
61 0.25 1.75 0 
65 2.25 1.75 0 
69 4.25 1.75 0 
81 0.25 2.25 0 
85 2.25 2.25 0 
89 4.25 2.25 0 
101 0.25 2.75 0 
105 2.25 2.75 0 
109 4.25 2.75 0 
121 0.25 3.25 0 
125 2.25 3.25 0 
129 4.25 3.25 0 
141 0.25 3.75 0 
145 2.25 3.75 0 
149 4.25 3.75 0 
161 0.25 4.25 0 
165 2.25 4.25 0 
169 4.25 4.25 0 
181 0.25 4.75 0 
185 2.25 4.75 0 
189 4.25 4.75 0 
2 0.75 0.25 0 
6 2.75 0.25 0 
10 4.75 0.25 0 
22 0.75 0.75 0 
26 2.75 0.75 0 
30 4.75 0.75 0 
42 0.75 1.25 0 
46 2.75 1.25 0 
50 4.75 1.25 0 
62 0.75 1.75 0 
66 2.75 1.75 0 
70 4.75 1.75 0 
82 0.75 2.25 0 
86 2.75 2.25 0 
90 4.75 2.25 0 
102 0.75 2.75 0 
106 2.75 2.75 0 
110 4.75 2.75 0 
122 0.75 3.25 0 
126 2.75 3.25 0 
130 4.75 3.25 0 
142 0.75 3.75 0 
146 2.75 3.75 0 
150 4.75 3.75 0 
162 0.75 4.25 0 
166 2.75 4.25 0 
170 4.75 4.25 0 
182 0.75 4.75 0 
186 2.75 4.75 0 
190 4.75 4.75 0 
3 1.25 0.25 0 
7 3.25 0.25 0 
23 1.25 0.75 0 
27 3.25 0.75 0 
43 1.25 1.25 0 
47 3.25 1.25 0 
63 1.25 1.75 0 
67 3.25 1.75 0 
83 1.25 2.25 0 
87 3.25 2.25 0 
103 1.25 2.75 0 
107 3.25 2.75 0 
123 1.25 3.25 0 
127 3.25 3.25 0 
143 1.25 3.75 0 
147 3.25 3.75 0 
163 1.25 4.25 0 
167 3.25 4.25 0 
183 1.25 4.75 0 
187 3.25 4.75 0 
4 1.75 0.25 0 
8 3.75 0.25 0 
24 1.75 0.75 0 
28 3.75 0.75 0 
44 1.75 1.25 0 
48 3.75 1.25 0 
64 1.75 1.75 0 
68 3.75 1.75 0 
84 1.75 2.25 0 
88 3.75 2.25 0 
104 1.75 2.75 0 
108 3.75 2.75 0 
124 1.75 3.25 0 
128 3.75 3.25 0 
144 1.75 3.75 0 
148 3.75 3.75 0 
164 1.75 4.25 0 
168 3.75 4.25 0 
184 1.75 4.75 0 
188 3.75 4.75 0 
202 0.75 5.25 0 
206 2.75 5.25 0 
210 4.75 5.25 0 
222 0.75 5.75 0 
226 2.75 5.75 0 
230 4.75 5.75 0 
242 0.75 6.25 0 
246 2.75 6.25 0 
250 4.75 6.25 0 
262 0.75 6.75 0 
266 2.75 6.75 0 
270 4.75 6.75 0 
282 0.75 7.25 0 
286 2.75 7.25 0 
290 4.75 7.25 0 
302 0.75 7.75 0 
306 2.75 7.75 0 
310 4.75 7.75 0 
322 0.75 8.25 0 
326 2.75 8.25 0 
330 4.75 8.25 0 
342 0.75 8.75 0 
346 2.75 8.75 0 
350 4.75 8.75 0 
362 0.75 9.25 0 
366 2.75 9.25 0 
370 4.75 9.25 0 
382 0.75 9.75 0 
386 2.75 9.75 0 
390 4.75 9.75 0 
201 0.25 5.25 0 
205 2.25 5.25 0 
209 4.25 5.25 0 
221 0.25 5.75 0 
225 2.25 5.75 0 
229 4.25 5.75 0 
241 0.25 6.25 0 
245 2.25 6.25 0 
249 4.25 6.25 0 
261 0.25 6.75 0 
265 2.25 6.75 0 
269 4.25 6.75 0 
281 0.25 7.25 0 
285 2.25 7.25 0 
289 4.25 7.25 0 
301 0.25 7.75 0 
305 2.25 7.75 0 
309 4.25 7.75 0 
321 0.25 8.25 0 
325 2.25 8.25 0 
329 4.25 8.25 0 
341 0.25 8.75 0 
345 2.25 8.75 0 
349 4.25 8.75 0 
361 0.25 9.25 0 
365 2.25 9.25 0 
369 4.25 9.25 0 
381 0.25 9.75 0 
385 2.25 9.75 0 
389 4.25 9.75 0 
203 1.25 5.25 0 
207 3.25 5.25 0 
223 1.25 5.75 0 
227 3.25 5.75 0 
243 1.25 6.25 0 
247 3.25 6.25 0 
263 1.25 6.75 0 
267 3.25 6.75 0 
283 1.25 7.25 0 
287 3.25 7.25 0 
303 1.25 7.75 0 
307 3.25 7.75 0 
323 1.25 8.25 0 
327 3.25 8.25 0 
343 1.25 8.75 0 
347 3.25 8.75 0 
363 1.25 9.25 0 
367 3.25 9.25 0 
383 1.25 9.75 0 
387 3.25 9.75 0 
204 1.75 5.25 0 
208 3.75 5.25 0 
224 1.75 5.75 0 
228 3.75 5.75 0 
244 1.75 6.25 0 
248 3.75 6.25 0 
264 1.75 6.75 0 
268 3.75 6.75 0 
284 1.75 7.25 0 
288 3.75 7.25 0 
304 1.75 7.75 0 
308 3.75 7.75 0 
324 1.75 8.25 0 
328 3.75 8.25 0 
344 1.75 8.75 0 
348 3.75 8.75 0 
364 1.75 9.25 0 
368 3.75 9.25 0 
384 1.75 9.75 0 
388 3.75 9.75 0 
11 5.25 0.25 0 
15 7.25 0.25 0 
19 9.25 0.25 0 
31 5.25 0.75 0 
35 7.25 0.75 0 
39 9.25 0.75 0 
51 5.25 1.25 0 
55 7.25 1.25 0 
59 9.25 1.25 0 
71 5.25 1.75 0 
75 7.25 1.75 0 
79 9.25 1.75 0 
91 5.25 2.25 0 
95 7.25 2.25 0 
99 9.25 2.25 0 
111 5.25 2.75 0 
115 7.25 2.75 0 
119 9.25 2.75 0 
131 5.25 3.25 0 
135 7.25 3.25 0 
139 9.25 3.25 0 
151 5.25 3.75 0 
155 7.25 3.75 0 
159 9.25 3.75 0 
171 5.25 4.25 0 
175 7.25 4.25 0 
179 9.25 4.25 0 
191 5.25 4.75 0 
195 7.25 4.75 0 
199 9.25 4.75 0 
13 6.25 0.25 0 
17 8.25 0.25 0 
33 6.25 0.75 0 
37 8.25 0.75 0 
53 6.25 1.25 0 
57 8.25 1.25 0 
73 6.25 1.75 0 
77 8.25 1.75 0 
93 6.25 2.25 0 
97 8.25 2.25 0 
113 6.25 2.75 0 
117 8.25 2.75 0 
133 6.25 3.25 0 
137 8.25 3.25 0 
153 6.25 3.75 0 
157 8.25 3.75 0 
173 6.25 4.25 0 
177 8.25 4.25 0 
193 6.25 4.75 0 
197 8.25 4.75 0 
14 6.75 0.25 0 
18 8.75 0.25 0 
34 6.75 0.75 0 
38 8.75 0.75 0 
54 6.75 1.25 0 
58 8.75 1.25 0 
74 6.75 1.75 0 
78 8.75 1.75 0 
94 6.75 2.25 0 
98 8.75 2.25 0 
114 6.75 2.75 0 
118 8.75 2.75 0 
134 6.75 3.25 0 
138 8.75 3.25 0 
154 6.75 3.75 0 
158 8.75 3.75 0 
174 6.75 4.25 0 
178 8.75 4.25 0 
194 6.75 4.75 0 
198 8.75 4.75 0 
12 5.75 0.25 0 
16 7.75 0.25 0 
20 9.75 0.25 0 
32 5.75 0.75 0 
36 7.75 0.75 0 
40 9.75 0.75 0 
52 5.75 1.25 0 
56 7.75 1.25 0 
60 9.75 1.25 0 
72 5.75 1.75 0 
76 7.75 1.75 0 
80 9.75 1.75 0 
92 5.75 2.25 0 
96 7.75 2.25 0 
100 9.75 2.25 0 
112 5.75 2.75 0 
116 7.75 2.75 0 
120 9.75 2.75 0 
132 5.75 3.25 0 
136 7.75 3.25 0 
140 9.75 3.25 0 
152 5.75 3.75 0 
156 7.75 3.75 0 
160 9.75 3.75 0 
172 5.75 4.25 0 
176 7.75 4.25 0 
180 9.75 4.25 0 
192 5.75 4.75 0 
196 7.75 4.75 0 
200 9.75 4.75 0 
212 5.75 5.25 0 
216 7.75 5.25 0 
220 9.75 5.25 0 
232 5.75 5.75 0 
236 7.75 5.75 0 
240 9.75 5.75 0 
252 5.75 6.25 0 
256 7.75 6.25 0 
260 9.75 6.25 0 
272 5.75 6.75 0 
276 7.75 6.75 0 
280 9.75 6.75 0 
292 5.75 7.25 0 
296 7.75 7.25 0 
300 9.75 7.25 0 
312 5.75 7.75 0 
316 7.75 7.75 0 
320 9.75 7.75 0 
332 5.75 8.25 0 
336 7.75 8.25 0 
340 9.75 8.25 0 
352 5.75 8.75 0 
356 7.75 8.75 0 
360 9.75 8.75 0 
372 5.75 9.25 0 
376 7.75 9.25 0 
380 9.75 9.25 0 
392 5.75 9.75 0 
396 7.75 9.75 0 
400 9.75 9.75 0 
213 6.25 5.25 0 
217 8.25 5.25 0 
233 6.25 5.75 0 
237 8.25 5.75 0 
253 6.25 6.25 0 
257 8.25 6.25 0 
273 6.25 6.75 0 
277 8.25 6.75 0 
293 6.25 7.25 0 
297 8.25 7.25 0 
313 6.25 7.75 0 
317 8.25 7.75 0 
333 6.25 8.25 0 
337 8.25 8.25 0 
353 6.25 8.75 0 
357 8.25 8.75 0 
373 6.25 9.25 0 
377 8.25 9.25 0 
393 6.25 9.75 0 
397 8.25 9.75 0 
214 6.75 5.25 0 
218 8.75 5.25 0 
234 6.75 5.75 0 
238 8.75 5.75 0 
254 6.75 6.25 0 
258 8.75 6.25 0 
274 6.75 6.75 0 
278 8.75 6.75 0 
294 6.75 7.25 0 
298 8.75 7.25 0 
314 6.75 7.75 0 
318 8.75 7.75 0 
334 6.75 8.25 0 
338 8.75 8.25 0 
354 6.75 8.75 0 
358 8.75 8.75 0 
374 6.75 9.25 0 
378 8.75 9.25 0 
394 6.75 9.75 0 
398 8.75 9.75 0 
211 5.25 5.25 0 
215 7.25 5.25 0 
219 9.25 5.25 0 
231 5.25 5.75 0 
235 7.25 5.75 0 
239 9.25 5.75 0 
251 5.25 6.25 0 
255 7.25 6.25 0 
259 9.25 6.25 0 
271 5.25 6.75 0 
275 7.25 6.75 0 
279 9.25 6.75 0 
291 5.25 7.25 0 
295 7.25 7.25 0 
299 9.25 7.25 0 
311 5.25 7.75 0 
315 7.25 7.75 0 
319 9.25 7.75 0 
331 5.25 8.25 0 
335 7.25 8.25 0 
339 9.25 8.25 0 
351 5.25 8.75 0 
355 7.25 8.75 0 
359 9.25 8.75 0 
371 5.25 9.25 0 
375 7.25 9.25 0 
379 9.25 9.25 0 
391 5.25 9.75 0 
395 7.25 9.75 0 
399 9.25 9.75 0 
ITEM: TIMESTEP
100
ITEM: NUMBER OF CELLS
400
ITEM: BOX BOUNDS oo rr pp
0 10
0 10
-0.5 0.5
ITEM: CELLS id xc yc f_2[*] 
1 0.25 0.25 0 
21 0.25 0.75 0 
41 0.25 1.25 0 
61 0.25 1.75 0.0128 
81 0.25 2.25 0.4956 
101 0.25 2.75 0.4872 
121 0.25 3.25 0.5176 
141 0.25 3.75 0.5328 
161 0.25 4.25 0.4676 
181 0.25 4.75 0.4976 
2 0.75 0.25 0 
22 0.75 0.75 0 
42 0.75 1.25 0 
62 0.75 1.75 0.046 
82 0.75 2.25 0.4552 
102 0.75 2.75 0.4848 
122 0.75 3.25 0.4796 
142 0.75 3.75 0.5064 
162 0.75 4.25 0.4864 
182 0.75 4.75 0.55 
202 0.75 5.25 0.482 
222 0.75 5.75 0.5064 
242 0.75 6.25 0.5148 
262 0.75 6.75 0.48 
282 0.75 7.25 0.458 
302 0.75 7.75 0.4956 
322 0.75 8.25 0.0196 
342 0.75 8.75 0 
362 0.75 9.25 0 
382 0.75 9.75 0 
201 0.25 5.25 0.5124 
221 0.25 5.75 0.5104 
241 0.25 6.25 0.5168 
261 0.25 6.75 0.4712 
281 0.25 7.25 0.4992 
301 0.25 7.75 0.502 
321 0.25 8.25 0.0096 
341 0.25 8.75 0 
361 0.25 9.25 0 
381 0.25 9.75 0 
303 1.25 7.75 0.138 
323 1.25 8.25 0.0076 
343 1.25 8.75 0 
363 1.25 9.25 0 
383 1.25 9.75 0 
11 5.25 0.25 0 
15 7.25 0.25 0 
19 9.25 0.25 0 
31 5.25 0.75 0 
35 7.25 0.75 0 
39 9.25 0.75 0 
51 5.25 1.25 0 
55 7.25 1.25 0 
59 9.25 1.25 0 
71 5.25 1.75 0 
75 7.25 1.75 0 
79 9.25 1.75 0 
91 5.25 2.25 0 
95 7.25 2.25 0 
99 9.25 2.25 0 
111 5.25 2.75 0 
115 7.25 2.75 0 
119 9.25 2.75 0 
131 5.25 3.25 0 
135 7.25 3.25 0 
139 9.25 3.25 0 
151 5.25 3.75 0 
155 7.25 3.75 0 
159 9.25 3.75 0 
171 5.25 4.25 0 
175 7.25 4.25 0 
179 9.25 4.25 0 
13 6.25 0.25 0 
17 8.25 0.25 0 
33 6.25 0.75 0 
37 8.25 0.75 0 
53 6.25 1.25 0 
57 8.25 1.25 0 
73 6.25 1.75 0 
77 8.25 1.75 0 
93 6.25 2.25 0 
97 8.25 2.25 0 
113 6.25 2.75 0 
117 8.25 2.75 0 
133 6.25 3.25 0 
137 8.25 3.25 0 
153 6.25 3.75 0 
157 8.25 3.75 0 
173 6.25 4.25 0 
177 8.25 4.25 0 
14 6.75 0.25 0 
18 8.75 0.25 0 
34 6.75 0.75 0 
38 8.75 0.75 0 
54 6.75 1.25 0 
58 8.75 1.25 0 
74 6.75 1.75 0 
78 8.75 1.75 0 
94 6.75 2.25 0 
98 8.75 2.25 0 
114 6.75 2.75 0 
118 8.75 2.75 0 
134 6.75 3.25 0 
138 8.75 3.25 0 
154 6.75 3.75 0 
158 8.75 3.75 0 
174 6.75 4.25 0 
178 8.75 4.25 0 
12 5.75 0.25 0 
16 7.75 0.25 0 
20 9.75 0.25 0 
32 5.75 0.75 0 
36 7.75 0.75 0 
40 9.75 0.75 0 
52 5.75 1.25 0 
56 7.75 1.25 0 
60 9.75 1.25 0 
72 5.75 1.75 0 
76 7.75 1.75 0 
80 9.75 1.75 0 
92 5.75 2.25 0 
96 7.75 2.25 0 
100 9.75 2.25 0 
112 5.75 2.75 0 
116 7.75 2.75 0 
120 9.75 2.75 0 
132 5.75 3.25 0 
136 7.75 3.25 0 
140 9.75 3.25 0 
152 5.75 3.75 0 
156 7.75 3.75 0 
160 9.75 3.75 0 
172 5.75 4.25 0 
176 7.75 4.25 0 
180 9.75 4.25 0 
5 2.25 0.25 0 
9 4.25 0.25 0 
25 2.25 0.75 0 
29 4.25 0.75 0 
45 2.25 1.25 0 
49 4.25 1.25 0 
65 2.25 1.75 0 
69 4.25 1.75 0 
85 2.25 2.25 0 
89 4.25 2.25 0 
105 2.25 2.75 0.0024 
109 4.25 2.75 0 
125 2.25 3.25 0.0176 
129 4.25 3.25 0 
145 2.25 3.75 0.1496 
149 4.25 3.75 0 
165 2.25 4.25 0.3268 
169 4.25 4.25 0 
185 2.25 4.75 0.4468 
189 4.25 4.75 0 
6 2.75 0.25 0 
10 4.75 0.25 0 
26 2.75 0.75 0 
30 4.75 0.75 0 
46 2.75 1.25 0 
50 4.75 1.25 0 
66 2.75 1.75 0 
70 4.75 1.75 0 
86 2.75 2.25 0 
90 4.75 2.25 0 
106 2.75 2.75 0 
110 4.75 2.75 0 
126 2.75 3.25 0 
130 4.75 3.25 0 
146 2.75 3.75 0.0196 
150 4.75 3.75 0 
166 2.75 4.25 0.088 
170 4.75 4.25 0 
186 2.75 4.75 0.1644 
190 4.75 4.75 0 
3 1.25 0.25 0 
7 3.25 0.25 0 
23 1.25 0.75 0 
27 3.25 0.75 0 
43 1.25 1.25 0 
47 3.25 1.25 0 
63 1.25 1.75 0.002 
67 3.25 1.75 0 
83 1.25 2.25 0.1484 
87 3.25 2.25 0 
103 1.25 2.75 0.4244 
107 3.25 2.75 0 
123 1.25 3.25 0.4604 
127 3.25 3.25 0 
143 1.25 3.75 0.4372 
147 3.25 3.75 0.004 
163 1.25 4.25 0.5028 
167 3.25 4.25 0.0048 
183 1.25 4.75 0.5072 
187 3.25 4.75 0.022 
4 1.75 0.25 0 
8 3.75 0.25 0 
24 1.75 0.75 0 
28 3.75 0.75 0 
44 1.75 1.25 0 
48 3.75 1.25 0 
64 1.75 1.75 0 
68 3.75 1.75 0 
84 1.75 2.25 0.0052 
88 3.75 2.25 0 
104 1.75 2.75 0.054 
108 3.75 2.75 0 
124 1.75 3.25 0.2556 
128 3.75 3.25 0 
144 1.75 3.75 0.4284 
148 3.75 3.75 0 
164 1.75 4.25 0.46 
168 3.75 4.25 0 
184 1.75 4.75 0.5276 
188 3.75 4.75 0 
212 5.75 5.25 0 
216 7.75 5.25 0 
220 9.75 5.25 0 
232 5.75 5.75 0 
236 7.75 5.75 0 
240 9.75 5.75 0 
252 5.75 6.25 0 
256 7.75 6.25 0 
260 9.75 6.25 0 
272 5.75 6.75 0 
276 7.75 6.75 0 
280 9.75 6.75 0 
292 5.75 7.25 0 
296 7.75 7.25 0 
300 9.75 7.25 0 
312 5.75 7.75 0 
316 7.75 7.75 0 
320 9.75 7.75 0 
332 5.75 8.25 0 
336 7.75 8.25 0 
340 9.75 8.25 0 
352 5.75 8.75 0 
356 7.75 8.75 0 
360 9.75 8.75 0 
372 5.75 9.25 0 
376 7.75 9.25 0 
380 9.75 9.25 0 
392 5.75 9.75 0 
396 7.75 9.75 0 
400 9.75 9.75 0 
213 6.25 5.25 0 
217 8.25 5.25 0 
233 6.25 5.75 0 
237 8.25 5.75 0 
253 6.25 6.25 0 
257 8.25 6.25 0 
273 6.25 6.75 0 
277 8.25 6.75 0 
293 6.25 7.25 0 
297 8.25 7.25 0 
313 6.25 7.75 0 
317 8.25 7.75 0 
333 6.25 8.25 0 
337 8.25 8.25 0 
353 6.25 8.75 0 
357 8.25 8.75 0 
373 6.25 9.25 0 
377 8.25 9.25 0 
393 6.25 9.75 0 
397 8.25 9.75 0 
214 6.75 5.25 0 
218 8.75 5.25 0 
234 6.75 5.75 0 
238 8.75 5.75 0 
254 6.75 6.25 0 
258 8.75 6.25 0 
274 6.75 6.75 0 
278 8.75 6.75 0 
294 6.75 7.25 0 
298 8.75 7.25 0 
314 6.75 7.75 0 
318 8.75 7.75 0 
334 6.75 8.25 0 
338 8.75 8.25 0 
354 6.75 8.75 0 
358 8.75 8.75 0 
374 6.75 9.25 0 
378 8.75 9.25 0 
394 6.75 9.75 0 
398 8.75 9.75 0 
211 5.25 5.25 0 
215 7.25 5.25 0 
219 9.25 5.25 0 
231 5.25 5.75 0 
235 7.25 5.75 0 
239 9.25 5.75 0 
251 5.25 6.25 0 
255 7.25 6.25 0 
259 9.25 6.25 0 
271 5.25 6.75 0 
275 7.25 6.75 0 
279 9.25 6.75 0 
291 5.25 7.25 0 
295 7.25 7.25 0 
299 9.25 7.25 0 
311 5.25 7.75 0 
315 7.25 7.75 0 
319 9.25 7.75 0 
331 5.25 8.25 0 
335 7.25 8.25 0 
339 9.25 8.25 0 
351 5.25 8.75 0 
355 7.25 8.75 0 
359 9.25 8.75 0 
371 5.25 9.25 0 
375 7.25 9.25 0 
379 9.25 9.25 0 
391 5.25 9.75 0 
395 7.25 9.75 0 
399 9.25 9.75 0 
206 2.75 5.25 0.2016 
210 4.75 5.25 0 
226 2.75 5.75 0.0608 
230 4.75 5.75 0 
246 2.75 6.25 0.0108 
250 4.75 6.25 0 
266 2.75 6.75 0 
270 4.75 6.75 0 
286 2.75 7.25 0 
290 4.75 7.25 0 
306 2.75 7.75 0 
310 4.75 7.75 0 
326 2.75 8.25 0 
330 4.75 8.25 0 
346 2.75 8.75 0 
350 4.75 8.75 0 
366 2.75 9.25 0 
370 4.75 9.25 0 
386 2.75 9.75 0 
390 4.75 9.75 0 
205 2.25 5.25 0.4496 
209 4.25 5.25 0 
225 2.25 5.75 0.3076 
229 4.25 5.75 0 
245 2.25 6.25 0.1816 
249 4.25 6.25 0 
265 2.25 6.75 0.0452 
269 4.25 6.75 0 
285 2.25 7.25 0 
289 4.25 7.25 0 
305 2.25 7.75 0 
309 4.25 7.75 0 
325 2.25 8.25 0 
329 4.25 8.25 0 
345 2.25 8.75 0 
349 4.25 8.75 0 
365 2.25 9.25 0 
369 4.25 9.25 0 
385 2.25 9.75 0 
389 4.25 9.75 0 
203 1.25 5.25 0.5148 
207 3.25 5.25 0.0344 
223 1.25 5.75 0.462 
227 3.25 5.75 0.004 
243 1.25 6.25 0.5152 
247 3.25 6.25 0 
263 1.25 6.75 0.4952 
267 3.25 6.75 0 
283 1.25 7.25 0.3636 
287 3.25 7.25 0 
307 3.25 7.75 0 
327 3.25 8.25 0 
347 3.25 8.75 0 
367 3.25 9.25 0 
387 3.25 9.75 0 
204 1.75 5.25 0.5284 
208 3.75 5.25 0 
224 1.75 5.75 0.4548 
228 3.75 5.75 0 
244 1.75 6.25 0.3824 
248 3.75 6.25 0 
264 1.75 6.75 0.2612 
268 3.75 6.75 0 
284 1.75 7.25 0.0716 
288 3.75 7.25 0 
304 1.75 7.75 0 
308 3.75 7.75 0 
324 1.75 8.25 0 
328 3.75 8.25 0 
344 1.75 8.75 0 
348 3.75 8.75 0 
364 1.75 9.25 0 
368 3.75 9.25 0 
384 1.75 9.75 0 
388 3.75 9.75 0 
191 5.25 4.75 0 
195 7.25 4.75 0 
199 9.25 4.75 0 
193 6.25 4.75 0 
197 8.25 4.75 0 
194 6.75 4.75 0 
198 8.75 4.75 0 
192 5.75 4.75 0 
196 7.75 4.75 0 
200 9.75 4.75 0 
